_audit_creation_date              '2002-02-11'

#  Crystal Data

_chemical_formula_sum              'Nd2 Fe14 B'

#  Publication Data

_journal_name_full                 'Phys Rev Ser 3 B Condensed Matter'
_journal_coden_ASTM                PRBMDO
_journal_volume                    29
_journal_year                      1984
_journal_page_first                4176
_journal_page_last                 4178

#  Unit Cell Data

_cell_length_a                     8.80
_cell_length_b                     8.80
_cell_length_c                     12.19
_cell_angle_alpha                 90
_cell_angle_beta                  90
_cell_angle_gamma                 90
_cell_volume                       943.99
_cell_formula_units_Z              4

#  Space Group

_symmetry_space_group_name_H-M     'P 42/m n m'
_symmetry_Int_Tables_number        136
_symmetry_cell_setting             tetragonal

loop_
_symmetry_equiv_pos_as_xyz
'x,y,z'
'-x,-y,z'
'-y+1/2,x+1/2,z+1/2'
'y+1/2,-x+1/2,z+1/2'
'-x+1/2,y+1/2,-z+1/2'
'x+1/2,-y+1/2,-z+1/2'
'y,x,-z'
'-y,-x,-z'
'-x,-y,-z'
'x,y,-z'
'y+1/2,-x+1/2,-z+1/2'
'-y+1/2,x+1/2,-z+1/2'
'x+1/2,-y+1/2,z+1/2'
'-x+1/2,y+1/2,z+1/2'
'-y,-x,z'
'y,x,z'

#  Atomic Coordinates

loop_
_atom_site_label
_atom_site_symmetry_multiplicity
_atom_site_Wyckoff_symbol
_atom_site_fract_x
_atom_site_fract_y
_atom_site_fract_z
_atom_site_occupancy
_atom_site_type_symbol
Fe1  4  c  0  0.5000  0  1  Fe
Fe2  4  e  0  0  0.613  1  Fe
Nd1  4  f  0.266  0.266  0  1  Nd
B  4  g  0.368  0.632  0  1  B
Nd2  4  g  0.139  0.861  0  1  Nd
Fe3  8  j  0.097  0.097  0.205  1  Fe
Fe4  8  j  0.318  0.318  0.247  1  Fe
Fe5  16  k  0.224  0.568  0.128  1  Fe
Fe6  16  k  0.039  0.359  0.176  1  Fe


